192
Lattice="12.942278 0.0 0.0 -1e-06 12.942278 0.0 -1e-06 -1e-06 112.942278" Properties=species:S:1:pos:R:3:force:R:3 TotEnergy=-30024.229963374404 cutoff=-1.0 nneightol=1.2 pbc="T T T"
O        0.24523844      11.64181242       6.49518549      -2.30727731      -0.20340359      -1.99241485
H       12.19176368      11.29492618       6.18445263       3.10939986       1.54943431       2.35969697
H        0.39737689      11.71018212       7.45659464      -0.91909232      -0.64079609      -0.47233432
O        1.37526917       0.31056262       0.65338039     -12.42310870      -2.21827086       5.15449662
H        2.08590125       0.56477936       0.34612370      11.72160886       3.32816476      -4.87424635
H        1.23450703      12.35456231       0.88102185       0.71114662      -1.30902586      -0.44286484
O        7.22385002      12.81755252       8.81434605      -0.19745354      -0.19342051      -0.13344232
H        7.35408154       0.72025252       9.29298684       0.42052144      -0.54412775       0.22552742
H        7.93749841      12.16944114       8.99828805       0.02481012       0.71094608       0.16703687
O       11.29003658       8.43005172      11.59361167      -5.01267970       5.80652844      -0.16045691
H       11.99374172       7.90866929      11.61784269       5.10800079      -3.21098415       0.34368864
H       11.50746491       9.42509538      11.52627387      -0.31399703      -2.57780881       0.03113812
O        3.19713096       5.37101066      10.38986536      -0.28589847       1.32974895       6.02491796
H        3.15211385       4.55353770      10.04669394      -0.02777254      -4.12467202      -3.66174486
H        3.15483382       4.81040032      11.39429662       0.25369077       3.05917593      -1.80946542
O        8.54286271       6.09151763       3.25106899      -1.14799251       4.08096326       3.67710977
H        8.18364664       7.11939144       3.40177337       1.19362960      -3.24651166      -0.57918217
H        8.42956058       5.95652452       2.35327752      -0.23272548      -0.74109484      -2.85127137
O       10.65209438       2.72417208       6.37954878      -2.15621471      -1.70432272       0.36001309
H       11.46808564       2.39290715       6.03420774       1.02618906      -0.09394195      -0.42761923
H       10.05602917       1.88151029       6.42521678       1.06386601       1.79641964       0.36761636
O        0.83874917       6.53074619       3.26502868      -2.32908027       3.31249646       2.71365049
H        1.36545512       5.84281582       3.00152489       2.13094590      -3.02249657      -0.60444069
H        1.00470973       6.78395749       4.23717485      -0.10172159      -0.59003223      -1.66228518
O        4.45754295       7.59873164       9.32976465      -1.44998403      -1.99066650       2.74865349
H        3.97530376       6.95572841      10.07415823       1.69094784       1.98851706      -2.98585320
H        4.71906233       6.95419380       8.66003797      -0.18352639       0.18225318       0.07350167
O        5.58196889      10.41913834      12.70169332      -4.48595832      -0.09522544       0.26033142
H        6.41404814      10.19492696       0.16201334       0.58259660      -0.91863467       1.27626486
H        4.70006961       9.93843476       0.24758130       4.15142692       1.37109230      -1.38019914
O        6.80567447       2.76742218       4.16703770       1.23336857       1.03771275       2.96252301
H        7.43460159       3.28560309       4.85695778      -1.53276328      -1.20762154      -2.39522448
H        6.33692930       2.19678923       4.83272675      -0.15007068       0.84799103      -0.49256273
O        7.80502334       2.54938685       0.18964563       1.74224135       1.01217141      -1.31676488
H        7.02322223       2.39126870       0.70035456       0.23378529      -0.95252695       0.40631044
H        8.62839133       2.00851482       0.29071848      -1.44563373      -0.17295864       0.98798247
O        5.17702232       9.35618108       3.99452638       0.54431801       0.08081389      -0.60124224
H        4.76955058       9.07375920       3.13170293      -0.06605216       0.27423851       0.48724569
H        4.64039430       9.02899081       4.71251402      -0.38077835      -0.12059092       0.33088403
O        1.18564326       7.05964834       6.03634516       1.21432184      -2.35464732      -0.14348505
H        0.39558168       6.77092925       6.54880037       0.96651890       0.17619617      -0.26767706
H        1.88833768       6.27530187       6.00835169      -1.85906201       2.03757885       0.41940507
O        1.54694903       1.62464812       3.16257998       0.75009370      -1.62905110       0.71885479
H        2.29283489       1.20575144       3.74867549      -1.67064641       0.25561241      -1.62747758
H        1.29168453       0.98535972       2.42531970       0.91649551       1.22959419       0.88765287
O        7.80654153       0.22280532       4.20920209       3.97444245      -4.78220085       1.51159795
H        8.70212104       0.00949399       3.76786830      -2.13361985       1.60290298       0.09448856
H        7.26058940       0.88776941       3.93122530      -0.57694017       3.50651192      -1.74168599
O        8.67047425       7.74424389      12.07910485       1.06316667      -1.34450709       4.04033983
H        8.15156307       7.95787273      11.37508749      -1.93377827       1.18546892      -3.38225564
H        9.60214364       7.82282671      11.93336945       1.27481990       0.56795674      -0.88453155
O        1.77928574       7.80180589       1.16062366       4.14287029       6.15928382       0.81141451
H        1.33451229       7.44736300       1.83664755      -3.01481411      -2.52207243       4.08471193
H        1.67927124       7.39682657       0.39294628      -1.22187060      -3.31175084      -5.03314568
O       10.45695455      11.09970467       6.48016609      -0.59150290      -0.35870903       2.74275538
H        9.89152870      11.93712761       6.68728605       1.09610765      -1.55346066      -0.13463583
H       10.58834925      10.52898705       7.36050530      -0.19261215       1.87365045      -2.53481996
O        5.35552548       6.12785138       0.86432101      -5.65884426      -0.84336819       0.58977512
H        4.87757262       5.45447338       0.29623499       0.86084141       0.89579298       0.61668429
H        6.23427716       6.13578904       0.73381533       4.90015793      -0.56008402      -1.18129859
O        2.71385213       9.52111413       6.34687783       4.24954537       7.01684964       2.11814181
H        2.84810438      10.03409852       7.33040660      -0.31531806      -1.94090023      -3.70430690
H        2.23658720       8.81175208       6.52674517      -3.55310545      -5.06600953       1.13234478
O        4.88915537       2.95171015       8.70849912       2.24340082       0.43488105       0.10640614
H        5.59756490       2.57449676       9.29318703      -1.39534294       0.25038999      -0.59358549
H        4.02881906       2.61215301       8.94985685      -0.59372433      -0.70064110       0.50113787
O        5.65939152       0.24437774       1.02953014       0.25073092      -0.98851726      -3.81811936
H        5.63605480       0.38225751       1.96441693      -0.09169377      -1.58006644       0.38776815
H        5.77348112      12.27464157       0.51248114      -0.32853045       2.26624250       3.05470221
O       10.46497732       0.58473123       3.16815176      -0.69469156       4.35981999       1.16592339
H       10.90530568       1.51115649       3.46216262      -1.28148934      -2.78995055      -1.17431547
H       11.14682116      12.91393151       3.05496076       1.93532607      -1.56331313       0.11769329
O       10.83191170       7.09556799       4.22862289      10.60220187       3.30418151       1.87089422
H       10.11863374       6.68466188       4.05595237      -8.40231440      -4.70066602      -2.38584509
H       11.58496791       6.51717729       3.88174723      -1.48789752       1.40007377       0.61087359
O        1.75341910       3.32357111       7.42488545      -1.43255709      -0.11618405      -2.57024977
H        2.17773985       3.98440761       6.87268903       1.09429759       0.79776710       0.44252391
H        1.31466240       2.88292525       6.62926751       0.04123176      -0.35529203       1.84205673
O        6.78122649       9.03982846      10.37642426       4.27818746       2.97487973       1.53404883
H        6.22929466       8.44318115       9.96356020      -3.21909856      -1.25529494      -0.61779500
H        6.55368029       9.72331374      11.05244814      -1.19800562      -1.79014615      -1.09803598
O        0.29456275       6.45000399      12.22009838       0.30565740       0.28353408      -0.64337234
H       12.62521773       5.76355531      12.43452098      -1.30203246      -0.66903195       1.76783412
H        0.51194875       6.03205983      11.39833909       1.10695256       0.21126705      -1.27154432
O        3.74312013       1.44298114      12.43455318       1.21576166      -1.39028815      -0.20688383
H        3.81076485       1.12277601      11.51844160      -0.21323549       0.36972467       0.43532225
H        4.48992676       0.90914717      12.87805660      -1.11237759       1.24870778      -0.11100070
O        0.77153308      11.09214792       9.24668383      -3.35186519       0.93729573       2.83767023
H        0.42551363      11.11659590      10.22370371       0.85062384       0.18279002      -2.70953158
H        1.65598929      10.81332444       9.26525795       2.35071868      -0.98242888       0.06561610
O        0.50557591      10.45109116       0.81424497      -1.33071055       3.79743741       0.64584060
H        0.80949296       9.60599516       0.63012306       0.83525893      -2.59594023       0.44796900
H        0.23073873      10.66535501       1.74584029       0.19381697      -1.05348390      -0.95211043
O        0.38614220       1.55028814       5.71029837      -0.34605714      -3.29357828       1.46780178
H        0.72982533       1.32656789       4.85401555       0.34543082       0.58444779      -1.12041486
H        0.37423783       0.54411059       6.04299208      -0.29936385       2.50698520      -0.09320507
O        7.47268163       2.20199873      10.33912875       1.87812931       5.14089548       1.51508437
H        7.46421479       3.22881419      10.01685982       0.24970659      -3.31361232       0.34563240
H        8.02329052       2.48098095      11.21417618      -2.38055376      -1.80924431      -2.22579391
O        4.91544874       4.78877669       3.26203928       0.34800450       1.19802619      -2.46518420
H        5.58821818       4.10656143       3.50895337      -0.31643135       0.48603932      -0.58902436
H        5.12965967       5.26101443       2.30692733       0.04718643      -1.39158913       2.98622344
O        4.26465162       8.61910038       1.56193533      -1.26015947       4.18234187       0.77557333
H        4.87299375       7.94307649       1.49446524       0.98547821      -2.97020032      -0.79371504
H        3.30985718       8.43499962       1.49380377       0.08377940      -1.21633758      -0.20481924
O        7.89103865       4.93856704       9.48338480       4.83943361       0.16807611       0.34694315
H        8.68734452       5.31629373       8.93039461      -2.14438763      -1.45263741       1.45646835
H        7.10970850       5.14716870       9.07824672      -2.57753627       1.19509513      -1.57883745
O        3.26071534       5.00329689       5.84846653       2.92618303       1.83906396       4.84019466
H        3.63150981       4.89317512       5.03003577       0.97029328      -0.60749516      -3.78135259
H        4.33558009       5.28894675       6.38177133      -4.28175101      -0.93834475      -0.80628773
O        2.43533792       1.78434851       9.23520068       3.03774835      -6.24176482       4.32884848
H        2.48433973       0.79336364       8.96272734      -0.36467502       3.10408282       0.60843104
H        2.04649851       2.27348818       8.60876070      -2.38308373       2.58854574      -4.40782763
O        2.39376531       4.14507829       2.41799015       2.09683250       2.98760155      -0.89771617
H        3.34453801       4.51079266       2.65622573      -1.96968630      -1.67918761       0.54525903
H        2.05525065       3.49440199       3.01109197       0.20631870      -1.10634064       0.35435564
O        7.82298646       9.72521978       0.93645271      -1.34799865       2.79785926      -1.49091600
H        7.75101836       9.57572722       1.85018300       0.36262431      -0.83902302       1.95428025
H        8.37354243       9.13143003       0.49353138       1.25275469      -2.15341220      -0.74433957
O        3.12445421       0.00424024       4.71705346      -0.16787145      -3.59677307       0.92419853
H        4.03151586      12.65881041       4.36499186      -1.26243233       0.38659367       0.18107201
H        2.68174355      12.03163910       5.04434956       1.52090535       3.24858911      -1.01847575
O        8.58809159       4.41927102       5.81520201      -4.33759537       0.14875119       2.16281216
H        9.27004226       3.82909555       5.90172248       3.21992645      -2.14838313       0.14221133
H        8.75891000       5.05130440       5.18796826       0.82470712       2.04469567      -2.57502688
O       11.44066058       9.58653192       8.71700964      -0.35311482       0.14224321      -0.40021024
H       12.35553389       9.78735467       8.84595425       1.05121618       1.40690262       0.47677975
H       11.58370776       8.75360699       8.27728984      -0.97107489      -1.38387582      -0.58585161
O        5.35785286       1.60629571       6.21585355      -0.24960169       0.14324234       0.27353815
H        5.10305403       2.16701188       6.96585642       0.40126799       0.03809347       0.05776395
H        4.57482934       1.07230298       6.09530699      -0.21430198      -0.32590227      -0.33053334
O        4.94800172      12.01321215      10.43849674       4.98738004      -1.31650263       0.95090716
H        5.90307662      12.06518265       9.96779362      -3.14535931       0.70215805      -0.10202395
H        5.44676711      11.57776281      11.24432780      -2.57384931       0.74368137      -1.15626632
O        8.67925859      11.90562084      12.18300306       2.43782252      -0.10226152      -3.70260483
H        9.24611322      11.54254707      11.35632242      -2.34165811       0.95286119       2.48725969
H        8.49917958      11.13141871      12.68561557      -0.22025768      -1.00064772       0.99647739
O        5.36257402       5.56104867       7.57234642       1.35752715       2.53094274      -3.18963371
H        5.37172879       4.80194396       8.08193349      -0.49046676      -3.17764723       1.74453992
H        6.18539167       5.53040931       7.02628845      -0.79904236       0.08338860       0.69164738
O       10.49538329       9.81491432       4.13196912       1.90049791      -3.09234830      -0.00637994
H       10.40203643      10.02272221       5.05307085      -0.57242017       1.29856661       1.09333600
H       10.97772832       8.90700498       4.29364335      -1.59749852       1.63545829      -1.29844320
O        9.07406522      10.79309739       9.38877365      -2.60610638      -0.42928479       0.65319910
H        8.31760640      10.07294013       9.40525752       2.91086954       1.39323978      -0.14830227
H        9.96525256      10.59243340       9.06519237      -0.62628479      -1.24184293       0.25374168
O       12.41571648      11.45300409       3.19429312      -0.64444192       0.60272320      -2.58684881
H       11.99750773      10.76015237       3.65758776      -2.19144911      -1.71700854       0.49130597
H        0.15851129      11.59000807       3.77030251       3.04691691       1.22457026       2.02548438
O        8.24932282       5.45475869       0.42605274       1.34960816      -2.07545121      -1.35950690
H        8.49601366       6.14067719      12.75526624      -0.25560213       2.06067251      -0.12274088
H        8.61750745       4.74437433      12.77067588      -1.42998599       0.00108295       1.62667540
O        8.95838709       0.55291655       6.72361981      -3.16845811      -1.40212037      -1.79567402
H        8.61283437       0.32886292       5.73744516       0.55656161       1.00728631       2.68919929
H        8.06005585       0.44237143       7.26809024       2.54415821       0.27391713      -1.08713450
O       11.49587893       7.14463420       7.40686122       0.99770638       0.63728397       2.81592898
H       11.11886663       6.34541785       7.82940922       0.06251175      -0.31900708      -0.06547520
H       11.32791808       7.08600136       6.51540929      -0.92317009      -0.16279301      -3.21292791
O       11.85650072      11.37875853      11.66485480      -1.70004955       0.99364404      -2.73322687
H       12.30497840      11.24604089      12.49048608       0.17485663       0.71081752       1.36598094
H       11.27551706      12.18649463      11.47228192       1.93256471      -1.92040853       1.46926731
O       12.83789005       4.26671681      10.04009070       2.31466667       0.07234314      -1.64576841
H        0.70012017       3.98791450       9.51239519      -1.44283636       1.37902158      -0.19639322
H       12.93779871       3.53554737      10.61303087      -1.03953309      -1.41738244       2.04620234
O        5.48648960      12.08674572       3.57345962      -6.18607472      -3.69452642      -0.45276359
H        6.26157547      12.40202950       3.82899400       5.68995461       1.87800075       1.97928166
H        5.40044539      11.19164247       4.03036710       0.10323494       1.14130250      -1.19280170
O        3.32427436      10.24080862       8.92517647       0.09612893       4.92207916       1.75587334
H        3.58847667       9.35835270       8.98084592       1.29343983      -2.35074439       0.80321269
H        3.83324230      10.92016632       9.62051533      -0.70124273      -2.48627239      -2.22683263
O       12.00696357       3.05326739       3.30605579       0.76314462      -5.16205567       3.59370832
H       12.88732712       2.59388865       3.51837227      -1.77389164       1.29935851      -0.84807331
H       12.15914965       3.78136231       2.81953556       0.87395403       3.68522417      -2.90539823
O        7.93736657       8.81336223       3.52078003      -8.56192850      -3.61442627      -1.59834698
H        6.95574813       9.13099556       3.77326106       3.02412665      -0.54359296      -0.06882947
H        8.65471390       9.26489327       3.72185149       5.16483246       3.97355285       2.11901084
O       10.72360200       4.83727239       8.38851715       0.93084227       1.12699174       2.93592237
H       11.41261719       4.62846964       9.16206839      -1.61810334      -0.22454680      -2.67514050
H       10.63024456       4.18153186       7.71005905       0.52065358      -1.21266091      -0.22198547
O       11.47256093       4.49973186       0.53234698      -4.64100100       1.99063565       0.49165873
H       11.51045002       3.67463875       0.02668799      -0.28378656       0.28270927       0.33809907
H       10.37483573       4.85560353       0.64916814       4.97846346      -1.95241363      -0.57779378
O       12.39634759       2.14166584      12.20141842      -0.89510393      -4.55259104      -0.48202018
H       11.44001853       1.78465114      12.42303784       2.39271508       0.70300137      -0.31577623
H       12.90075931       1.19450213      12.09918139      -1.51804114       3.72908720       0.72565279
O       10.07252079       0.91883311       0.44042271      -0.77380956       0.11032090      -3.36847452
H       10.34420037       0.80606545       1.31928022       0.34813614      -0.47218108       2.33154853
H        9.67812501       0.08479691       0.04920200       0.10356816       0.77468373       0.78287012
O        3.40444087       4.27876288      12.89387900      -1.87378929       3.69222272       2.47060923
H        3.45730567       3.37857424      12.80508307       0.71794462      -4.09742347      -0.68040137
H        2.80641870       4.31414996       0.84538131       1.20775524      -0.05025119      -2.23043218
